# OOMMF OVF 2.0
#
# Segment count: 000001
#
# Begin: Segment
# Begin: Header
#
# Title: SPIRIT NBMPO magnetic moments by  Michal
#
# Desc: -
#
# valuedim: 3   ## field dimensionality
# valueunits: none none none
# valuelabels: spin_x spin_y spin_z
#
## Fundamental mesh measurement unit. Treated as a label:
# meshunit: nm
#
# xmin: -0.1
# ymin: 0
# zmin: 0
# xmax: 0.2
# ymax: 0.173205
# zmax: 0.9
#
# meshtype: rectangular
# xbase: 0
# ybase: 0
# zbase: 0
# xstepsize: 0.1
# ystepsize: 0.0866025
# zstepsize: 0.1
# xnodes: 3
# ynodes: 3
# znodes: 10
#
# End: Header
#
# Begin: Data Text
       -0.054468000000        0.000000000000        3.704000000000
       -3.300410157327       -2.879787750000       -1.852000000000
        3.354878157327        2.879787750000       -1.852000000000
       -3.300410157327       -2.879787750000       -1.852000000000
        3.354878157327        2.879787750000       -1.852000000000
       -0.054468000000        0.000000000000        3.704000000000
        3.354878157327        2.879787750000       -1.852000000000
       -0.054468000000        0.000000000000        3.704000000000
       -3.300410157327       -2.879787750000       -1.852000000000
       -3.566309711432       -3.068156709867        1.428203107395
        0.543591629548        0.423678297377       -3.673812504622
        3.022718081884        2.644478412490        2.245609397226
        0.543591629548        0.423678297377       -3.673812504622
        3.022718081884        2.644478412490        2.245609397226
       -3.566309711432       -3.068156709867        1.428203107395
        3.022718081884        2.644478412490        2.245609397226
       -3.566309711432       -3.068156709867        1.428203107395
        0.543591629548        0.423678297377       -3.673812504622
       -2.695755872463       -2.366064226247       -2.602615488135
        3.719610618707        3.206514888688       -0.981126584821
       -1.023854746243       -0.840450662441        3.583742072956
        3.719610618707        3.206514888688       -0.981126584821
       -1.023854746243       -0.840450662441        3.583742072956
       -2.695755872463       -2.366064226247       -2.602615488135
       -1.023854746243       -0.840450662441        3.583742072956
       -2.695755872463       -2.366064226247       -2.602615488135
        3.719610618707        3.206514888688       -0.981126584821
        1.487429088413        1.243523729186       -3.435256847952
        2.324852994608        2.049083326777        2.917199093612
       -3.812282083021       -3.292607055963        0.518057754340
        2.324852994608        2.049083326777        2.917199093612
       -3.812282083021       -3.292607055963        0.518057754340
        1.487429088413        1.243523729186       -3.435256847952
       -3.812282083021       -3.292607055963        0.518057754340
        1.487429088413        1.243523729186       -3.435256847952
        2.324852994608        2.049083326777        2.917199093612
        3.842813564743        3.325029914229       -0.046544611728
       -1.926758420468       -1.626327429392        3.230777130387
       -1.916055144275       -1.698702484837       -3.184232518659
       -1.926758420468       -1.626327429392        3.230777130387
       -1.916055144275       -1.698702484837       -3.184232518659
        3.842813564743        3.325029914229       -0.046544611728
       -1.916055144275       -1.698702484837       -3.184232518659
        3.842813564743        3.325029914229       -0.046544611728
       -1.926758420468       -1.626327429392        3.230777130387
        1.476025703330        1.320632888355        3.399363133533
       -3.810707402445       -3.303254972728       -0.425727205426
        2.334681699115        1.982622084373       -2.973635928108
       -3.810707402445       -3.303254972728       -0.425727205426
        2.334681699115        1.982622084373       -2.973635928108
        1.476025703330        1.320632888355        3.399363133533
        2.334681699115        1.982622084373       -2.973635928108
        1.476025703330        1.320632888355        3.399363133533
       -3.810707402445       -3.303254972728       -0.425727205426
       -2.704549797955       -2.306600111380        2.668024628185
       -1.011937126803       -0.921037050397       -3.559084321365
        3.716486924758        3.227637161776        0.891059693181
       -1.011937126803       -0.921037050397       -3.559084321365
        3.716486924758        3.227637161776        0.891059693181
       -2.704549797955       -2.306600111380        2.668024628185
        3.716486924758        3.227637161776        0.891059693181
       -2.704549797955       -2.306600111380        2.668024628185
       -1.011937126803       -0.921037050397       -3.559084321365
       -3.561687920147       -3.099409047421       -1.341867958274
        3.030333887872        2.592980686873       -2.318924677542
        0.531354032275        0.506428360548        3.660792635816
        3.030333887872        2.592980686873       -2.318924677542
        0.531354032275        0.506428360548        3.660792635816
       -3.561687920147       -3.099409047421       -1.341867958274
        0.531354032275        0.506428360548        3.660792635816
       -3.561687920147       -3.099409047421       -1.341867958274
        3.030333887872        2.592980686873       -2.318924677542
       -0.042109897038       -0.083564917031       -3.702830237105
        3.348833603641        2.920660740682        1.770803851451
       -3.306723706604       -2.837095823651        1.932026385655
        3.348833603641        2.920660740682        1.770803851451
       -3.306723706604       -2.837095823651        1.932026385655
       -0.042109897038       -0.083564917031       -3.702830237105
       -3.306723706604       -2.837095823651        1.932026385655
       -0.042109897038       -0.083564917031       -3.702830237105
        3.348833603641        2.920660740682        1.770803851451
        3.529214115719        3.034966458775       -1.513636172823
       -0.447820627142       -0.340660629913        3.684511914707
       -3.081393488576       -2.694305828862       -2.170875741884
       -0.447820627142       -0.340660629913        3.684511914707
       -3.081393488576       -2.694305828862       -2.170875741884
        3.529214115719        3.034966458775       -1.513636172823
       -3.081393488576       -2.694305828862       -2.170875741884
        3.529214115719        3.034966458775       -1.513636172823
       -0.447820627142       -0.340660629913        3.684511914707
# End: Data Text
# End: Segment