# OOMMF OVF 2.0
#
# Segment count: 000001
#
# Begin: Segment
# Begin: Header
#
# Title: SPIRIT NBMPO magnetic moments by  Michal
#
# Desc: -
#
# valuedim: 3   ## field dimensionality
# valueunits: none none none
# valuelabels: spin_x spin_y spin_z
#
## Fundamental mesh measurement unit. Treated as a label:
# meshunit: nm
#
# xmin: -0.1
# ymin: 0
# zmin: 0
# xmax: 0.2
# ymax: 0.173205
# zmax: 0.9
#
# meshtype: rectangular
# xbase: 0
# ybase: 0
# zbase: 0
# xstepsize: 0.1
# ystepsize: 0.0866025
# zstepsize: 0.1
# xnodes: 3
# ynodes: 3
# znodes: 10
#
# End: Header
#
# Begin: Data Text
        0.000000000000        0.000000000000        2.168000000000
       -3.202037997826       -2.771086500000        0.011000000000
        3.202037997826        2.771086500000        0.011000000000
       -3.202037997826       -2.771086500000        0.011000000000
        3.202037997826        2.771086500000        0.011000000000
        0.000000000000        0.000000000000        2.168000000000
        3.202037997826        2.771086500000        0.011000000000
        0.000000000000        0.000000000000        2.168000000000
       -3.202037997826       -2.771086500000        0.011000000000
        3.205902875132        2.774431216501        1.446390181478
       -3.198159074814       -2.767729628158        1.451606664636
       -0.007743800318       -0.006701588343       -0.707996846114
       -3.198159074814       -2.767729628158        1.451606664636
       -0.007743800318       -0.006701588343       -0.707996846114
        3.205902875132        2.774431216501        1.446390181478
       -0.007743800318       -0.006701588343       -0.707996846114
        3.205902875132        2.774431216501        1.446390181478
       -3.198159074814       -2.767729628158        1.451606664636
        3.194266123112        2.764360615699        0.005789836048
        0.015487566668        0.013403147290        2.167987384471
       -3.209753689780       -2.777763762989        0.016222779481
        0.015487566668        0.013403147290        2.167987384471
       -3.209753689780       -2.777763762989        0.016222779481
        3.194266123112        2.764360615699        0.005789836048
       -3.209753689780       -2.777763762989        0.016222779481
        3.194266123112        2.764360615699        0.005789836048
        0.015487566668        0.013403147290        2.167987384471
       -0.023231265083       -0.020104647444       -0.707971615111
        3.213590424878        2.781084124847        1.441161128583
       -3.190359159796       -2.760979477403        1.456810486528
        3.213590424878        2.781084124847        1.441161128583
       -3.190359159796       -2.760979477403        1.456810486528
       -0.023231265083       -0.020104647444       -0.707971615111
       -3.190359159796       -2.760979477403        1.456810486528
       -0.023231265083       -0.020104647444       -0.707971615111
        3.213590424878        2.781084124847        1.441161128583
       -3.217413063596       -2.784392287509        0.021458082854
        3.186438202003        2.757586228100        0.000592379042
        0.030974861593        0.026806059409        2.167949538104
        3.186438202003        2.757586228100        0.000592379042
        0.030974861593        0.026806059409        2.167949538104
       -3.217413063596       -2.784392287509        0.021458082854
        0.030974861593        0.026806059409        2.167949538104
       -3.217413063596       -2.784392287509        0.021458082854
        3.186438202003        2.757586228100        0.000592379042
       -3.182503266934       -2.754180882674        1.462001555849
       -0.038718322232       -0.033507353790       -0.707921153548
        3.221221589167        2.787688236464        1.435919597699
       -0.038718322232       -0.033507353790       -0.707921153548
        3.221221589167        2.787688236464        1.435919597699
       -3.182503266934       -2.754180882674        1.462001555849
        3.221221589167        2.787688236464        1.435919597699
       -3.182503266934       -2.754180882674        1.462001555849
       -0.038718322232       -0.033507353790       -0.707921153548
        0.046461613035        0.040208501191        2.167886461565
       -3.225015984883       -2.790971957254        0.026705818258
        3.178554371849        2.750763456064       -0.004592279823
       -3.225015984883       -2.790971957254        0.026705818258
        3.178554371849        2.750763456064       -0.004592279823
        0.046461613035        0.040208501191        2.167886461565
        3.178554371849        2.750763456064       -0.004592279823
        0.046461613035        0.040208501191        2.167886461565
       -3.225015984883       -2.790971957254        0.026705818258
        3.228796234102        2.794243435477        1.430665680793
       -3.174591534069       -2.747333963259        1.467179781516
       -0.054204700033       -0.046909472218       -0.707845462309
       -3.174591534069       -2.747333963259        1.467179781516
       -0.054204700033       -0.046909472218       -0.707845462309
        3.228796234102        2.794243435477        1.430665680793
       -0.054204700033       -0.046909472218       -0.707845462309
        3.228796234102        2.794243435477        1.430665680793
       -3.174591534069       -2.747333963259        1.467179781516
        3.170614770977        2.743892419303       -0.009764049578
        0.061947549263        0.053610237476        2.167798155959
       -3.232562320241       -2.797502656780        0.031965893618
        0.061947549263        0.053610237476        2.167798155959
       -3.232562320241       -2.797502656780        0.031965893618
        3.170614770977        2.743892419303       -0.009764049578
       -3.232562320241       -2.797502656780        0.031965893618
        3.170614770977        2.743892419303       -0.009764049578
        0.061947549263        0.053610237476        2.167798155959
       -0.069690126762       -0.060310767575       -0.707744542724
        3.236314226779        2.800749606868        1.425399470051
       -3.166624100018       -2.740438839293        1.472345072673
        3.236314226779        2.800749606868        1.425399470051
       -3.166624100018       -2.740438839293        1.472345072673
       -0.069690126762       -0.060310767575       -0.707744542724
       -3.166624100018       -2.740438839293        1.472345072673
       -0.069690126762       -0.060310767575       -0.707744542724
        3.236314226779        2.800749606868        1.425399470051
# End: Data Text
# End: Segment