# OOMMF OVF 2.0
#
# Segment count: 000001
#
# Begin: Segment
# Begin: Header
#
# Title: SPIRIT NBMPO magnetic moments by  Michal
#
# Desc: -
#
# valuedim: 3   ## field dimensionality
# valueunits: none none none
# valuelabels: spin_x spin_y spin_z
#
## Fundamental mesh measurement unit. Treated as a label:
# meshunit: nm
#
# xmin: -0.1
# ymin: 0
# zmin: 0
# xmax: 0.2
# ymax: 0.173205
# zmax: 0.9
#
# meshtype: rectangular
# xbase: 0
# ybase: 0
# zbase: 0
# xstepsize: 0.1
# ystepsize: 0.0866025
# zstepsize: 0.1
# xnodes: 3
# ynodes: 3
# znodes: 10
#
# End: Header
#
# Begin: Data Text
       -0.039449520000        0.000000000000       -4.188890000000
       -1.630752430108       -1.428345030000        4.029445000000
        1.670201950108        1.428345030000        4.029445000000
       -1.630752430108       -1.428345030000        4.029445000000
        1.670201950108        1.428345030000        4.029445000000
       -0.039449520000        0.000000000000       -4.188890000000
        1.670201950108        1.428345030000        4.029445000000
       -0.039449520000        0.000000000000       -4.188890000000
       -1.630752430108       -1.428345030000        4.029445000000
       -0.039449520000        0.000000000000       -4.188890000000
       -1.630752430108       -1.428345030000        4.029445000000
        1.670201950108        1.428345030000        4.029445000000
       -1.630752430108       -1.428345030000        4.029445000000
        1.670201950108        1.428345030000        4.029445000000
       -0.039449520000        0.000000000000       -4.188890000000
        1.670201950108        1.428345030000        4.029445000000
       -0.039449520000        0.000000000000       -4.188890000000
       -1.630752430108       -1.428345030000        4.029445000000
       -0.039449520000        0.000000000000       -4.188890000000
       -1.630752430108       -1.428345030000        4.029445000000
        1.670201950108        1.428345030000        4.029445000000
       -1.630752430108       -1.428345030000        4.029445000000
        1.670201950108        1.428345030000        4.029445000000
       -0.039449520000        0.000000000000       -4.188890000000
        1.670201950108        1.428345030000        4.029445000000
       -0.039449520000        0.000000000000       -4.188890000000
       -1.630752430108       -1.428345030000        4.029445000000
       -0.039449520000        0.000000000000       -4.188890000000
       -1.630752430108       -1.428345030000        4.029445000000
        1.670201950108        1.428345030000        4.029445000000
       -1.630752430108       -1.428345030000        4.029445000000
        1.670201950108        1.428345030000        4.029445000000
       -0.039449520000        0.000000000000       -4.188890000000
        1.670201950108        1.428345030000        4.029445000000
       -0.039449520000        0.000000000000       -4.188890000000
       -1.630752430108       -1.428345030000        4.029445000000
       -0.039449520000        0.000000000000       -4.188890000000
       -1.630752430108       -1.428345030000        4.029445000000
        1.670201950108        1.428345030000        4.029445000000
       -1.630752430108       -1.428345030000        4.029445000000
        1.670201950108        1.428345030000        4.029445000000
       -0.039449520000        0.000000000000       -4.188890000000
        1.670201950108        1.428345030000        4.029445000000
       -0.039449520000        0.000000000000       -4.188890000000
       -1.630752430108       -1.428345030000        4.029445000000
       -0.039449520000        0.000000000000       -4.188890000000
       -1.630752430108       -1.428345030000        4.029445000000
        1.670201950108        1.428345030000        4.029445000000
       -1.630752430108       -1.428345030000        4.029445000000
        1.670201950108        1.428345030000        4.029445000000
       -0.039449520000        0.000000000000       -4.188890000000
        1.670201950108        1.428345030000        4.029445000000
       -0.039449520000        0.000000000000       -4.188890000000
       -1.630752430108       -1.428345030000        4.029445000000
       -0.039449520000        0.000000000000       -4.188890000000
       -1.630752430108       -1.428345030000        4.029445000000
        1.670201950108        1.428345030000        4.029445000000
       -1.630752430108       -1.428345030000        4.029445000000
        1.670201950108        1.428345030000        4.029445000000
       -0.039449520000        0.000000000000       -4.188890000000
        1.670201950108        1.428345030000        4.029445000000
       -0.039449520000        0.000000000000       -4.188890000000
       -1.630752430108       -1.428345030000        4.029445000000
       -0.039449520000        0.000000000000       -4.188890000000
       -1.630752430108       -1.428345030000        4.029445000000
        1.670201950108        1.428345030000        4.029445000000
       -1.630752430108       -1.428345030000        4.029445000000
        1.670201950108        1.428345030000        4.029445000000
       -0.039449520000        0.000000000000       -4.188890000000
        1.670201950108        1.428345030000        4.029445000000
       -0.039449520000        0.000000000000       -4.188890000000
       -1.630752430108       -1.428345030000        4.029445000000
       -0.039449520000        0.000000000000       -4.188890000000
       -1.630752430108       -1.428345030000        4.029445000000
        1.670201950108        1.428345030000        4.029445000000
       -1.630752430108       -1.428345030000        4.029445000000
        1.670201950108        1.428345030000        4.029445000000
       -0.039449520000        0.000000000000       -4.188890000000
        1.670201950108        1.428345030000        4.029445000000
       -0.039449520000        0.000000000000       -4.188890000000
       -1.630752430108       -1.428345030000        4.029445000000
       -0.039449520000        0.000000000000       -4.188890000000
       -1.630752430108       -1.428345030000        4.029445000000
        1.670201950108        1.428345030000        4.029445000000
       -1.630752430108       -1.428345030000        4.029445000000
        1.670201950108        1.428345030000        4.029445000000
       -0.039449520000        0.000000000000       -4.188890000000
        1.670201950108        1.428345030000        4.029445000000
       -0.039449520000        0.000000000000       -4.188890000000
       -1.630752430108       -1.428345030000        4.029445000000
# End: Data Text
# End: Segment