# OOMMF OVF 2.0
#
# Segment count: 000001
#
# Begin: Segment
# Begin: Header
#
# Title: SPIRIT NBMPO magnetic moments by  Michal
#
# Desc: -
#
# valuedim: 3   ## field dimensionality
# valueunits: none none none
# valuelabels: spin_x spin_y spin_z
#
## Fundamental mesh measurement unit. Treated as a label:
# meshunit: nm
#
# xmin: -0.1
# ymin: 0
# zmin: 0
# xmax: 0.2
# ymax: 0.173205
# zmax: 0.9
#
# meshtype: rectangular
# xbase: 0
# ybase: 0
# zbase: 0
# xstepsize: 0.1
# ystepsize: 0.0866025
# zstepsize: 0.1
# xnodes: 3
# ynodes: 3
# znodes: 10
#
# End: Header
#
# Begin: Data Text
       -2.174436000000        0.000000000000        0.312000000000
       -1.089751193700       -1.883978250000        3.099000000000
        3.264187193700        1.883978250000        3.099000000000
       -1.089751193700       -1.883978250000        3.099000000000
        3.264187193700        1.883978250000        3.099000000000
       -2.174436000000        0.000000000000        0.312000000000
        3.264187193700        1.883978250000        3.099000000000
       -2.174436000000        0.000000000000        0.312000000000
       -1.089751193700       -1.883978250000        3.099000000000
        3.264185882092        1.883980528102        3.098996629959
       -2.174441264776       -0.000004556211        0.312000000004
       -1.089744617316       -1.883975971890        3.099003370037
       -2.174441264776       -0.000004556211        0.312000000004
       -1.089744617316       -1.883975971890        3.099003370037
        3.264185882092        1.883980528102        3.098996629959
       -1.089744617316       -1.883975971890        3.099003370037
        3.264185882092        1.883980528102        3.098996629959
       -2.174441264776       -0.000004556211        0.312000000004
       -1.089738040928       -1.883973693772        3.099006740070
        3.264184570470        1.883982806195        3.098993259913
       -2.174446529542       -0.000009112423        0.312000000016
        3.264184570470        1.883982806195        3.098993259913
       -2.174446529542       -0.000009112423        0.312000000016
       -1.089738040928       -1.883973693772        3.099006740070
       -2.174446529542       -0.000009112423        0.312000000016
       -1.089738040928       -1.883973693772        3.099006740070
        3.264184570470        1.883982806195        3.098993259913
       -2.174451794298       -0.000013668634        0.312000000037
       -1.089731464536       -1.883971415646        3.099010110099
        3.264183258834        1.883985084280        3.098989889864
       -1.089731464536       -1.883971415646        3.099010110099
        3.264183258834        1.883985084280        3.098989889864
       -2.174451794298       -0.000013668634        0.312000000037
        3.264183258834        1.883985084280        3.098989889864
       -2.174451794298       -0.000013668634        0.312000000037
       -1.089731464536       -1.883971415646        3.099010110099
        3.264181947183        1.883987362357        3.098986519811
       -2.174457059046       -0.000018224846        0.312000000065
       -1.089724888138       -1.883969137511        3.099013480124
       -2.174457059046       -0.000018224846        0.312000000065
       -1.089724888138       -1.883969137511        3.099013480124
        3.264181947183        1.883987362357        3.098986519811
       -1.089724888138       -1.883969137511        3.099013480124
        3.264181947183        1.883987362357        3.098986519811
       -2.174457059046       -0.000018224846        0.312000000065
       -1.089718311736       -1.883966859368        3.099016850145
        3.264180635519        1.883989640425        3.098983149753
       -2.174462323783       -0.000022781057        0.312000000102
        3.264180635519        1.883989640425        3.098983149753
       -2.174462323783       -0.000022781057        0.312000000102
       -1.089718311736       -1.883966859368        3.099016850145
       -2.174462323783       -0.000022781057        0.312000000102
       -1.089718311736       -1.883966859368        3.099016850145
        3.264180635519        1.883989640425        3.098983149753
       -2.174467588511       -0.000027337268        0.312000000147
       -1.089711735328       -1.883964581217        3.099020220162
        3.264179323839        1.883991918485        3.098979779691
       -1.089711735328       -1.883964581217        3.099020220162
        3.264179323839        1.883991918485        3.098979779691
       -2.174467588511       -0.000027337268        0.312000000147
        3.264179323839        1.883991918485        3.098979779691
       -2.174467588511       -0.000027337268        0.312000000147
       -1.089711735328       -1.883964581217        3.099020220162
        3.264178012146        1.883994196537        3.098976409626
       -2.174472853229       -0.000031893480        0.312000000200
       -1.089705158916       -1.883962303058        3.099023590175
       -2.174472853229       -0.000031893480        0.312000000200
       -1.089705158916       -1.883962303058        3.099023590175
        3.264178012146        1.883994196537        3.098976409626
       -1.089705158916       -1.883962303058        3.099023590175
        3.264178012146        1.883994196537        3.098976409626
       -2.174472853229       -0.000031893480        0.312000000200
       -1.089698582500       -1.883960024890        3.099026960183
        3.264176700438        1.883996474581        3.098973039556
       -2.174478117938       -0.000036449691        0.312000000261
        3.264176700438        1.883996474581        3.098973039556
       -2.174478117938       -0.000036449691        0.312000000261
       -1.089698582500       -1.883960024890        3.099026960183
       -2.174478117938       -0.000036449691        0.312000000261
       -1.089698582500       -1.883960024890        3.099026960183
        3.264176700438        1.883996474581        3.098973039556
       -2.174483382638       -0.000041005903        0.312000000330
       -1.089692006078       -1.883957746714        3.099030330188
        3.264175388716        1.883998752617        3.098969669482
       -1.089692006078       -1.883957746714        3.099030330188
        3.264175388716        1.883998752617        3.098969669482
       -2.174483382638       -0.000041005903        0.312000000330
        3.264175388716        1.883998752617        3.098969669482
       -2.174483382638       -0.000041005903        0.312000000330
       -1.089692006078       -1.883957746714        3.099030330188
# End: Data Text
# End: Segment