# OOMMF OVF 2.0
#
# Segment count: 000001
#
# Begin: Segment
# Begin: Header
#
# Title: SPIRIT NBMPO magnetic moments by  Michal
#
# Desc: -
#
# valuedim: 3   ## field dimensionality
# valueunits: none none none
# valuelabels: spin_x spin_y spin_z
#
## Fundamental mesh measurement unit. Treated as a label:
# meshunit: nm
#
# xmin: -0.1
# ymin: 0
# zmin: 0
# xmax: 0.2
# ymax: 0.173205
# zmax: 0.9
#
# meshtype: rectangular
# xbase: 0
# ybase: 0
# zbase: 0
# xstepsize: 0.1
# ystepsize: 0.0866025
# zstepsize: 0.1
# xnodes: 3
# ynodes: 3
# znodes: 10
#
# End: Header
#
# Begin: Data Text
       -0.128520000000        0.000000000000        2.069000000000
        0.064260000000        0.000000000000       -1.034500000000
        0.064260000000        0.000000000000       -1.034500000000
        0.064260000000        0.000000000000       -1.034500000000
        0.064260000000        0.000000000000       -1.034500000000
       -0.128520000000        0.000000000000        2.069000000000
        0.064260000000        0.000000000000       -1.034500000000
       -0.128520000000        0.000000000000        2.069000000000
        0.064260000000        0.000000000000       -1.034500000000
       -0.077488504698        0.000000000000        1.247461221755
        0.127540037890        0.000000000000       -2.053223921517
       -0.050051533192        0.000000000000        0.805762699762
        0.127540037890        0.000000000000       -2.053223921517
       -0.050051533192        0.000000000000        0.805762699762
       -0.077488504698        0.000000000000        1.247461221755
       -0.050051533192        0.000000000000        0.805762699762
       -0.077488504698        0.000000000000        1.247461221755
        0.127540037890        0.000000000000       -2.053223921517
        0.035079782753        0.000000000000       -0.564737554585
        0.089535313183        0.000000000000       -1.441398715970
       -0.124615095936        0.000000000000        2.006136270556
        0.089535313183        0.000000000000       -1.441398715970
       -0.124615095936        0.000000000000        2.006136270556
        0.035079782753        0.000000000000       -0.564737554585
       -0.124615095936        0.000000000000        2.006136270556
        0.035079782753        0.000000000000       -0.564737554585
        0.089535313183        0.000000000000       -1.441398715970
        0.119789779373        0.000000000000       -1.928455131676
       -0.019573067204        0.000000000000        0.315100187095
       -0.100216712169        0.000000000000        1.613354944581
       -0.019573067204        0.000000000000        0.315100187095
       -0.100216712169        0.000000000000        1.613354944581
        0.119789779373        0.000000000000       -1.928455131676
       -0.100216712169        0.000000000000        1.613354944581
        0.119789779373        0.000000000000       -1.928455131676
       -0.019573067204        0.000000000000        0.315100187095
        0.109369810800        0.000000000000       -1.760707582833
       -0.113137674061        0.000000000000        1.821365138753
        0.003767863261        0.000000000000       -0.060657555919
       -0.113137674061        0.000000000000        1.821365138753
        0.003767863261        0.000000000000       -0.060657555919
        0.109369810800        0.000000000000       -1.760707582833
        0.003767863261        0.000000000000       -0.060657555919
        0.109369810800        0.000000000000       -1.760707582833
       -0.113137674061        0.000000000000        1.821365138753
        0.012094800428        0.000000000000       -0.194710100256
       -0.116855024735        0.000000000000        1.881209509618
        0.104760224307        0.000000000000       -1.686499409362
       -0.116855024735        0.000000000000        1.881209509618
        0.104760224307        0.000000000000       -1.686499409362
        0.012094800428        0.000000000000       -0.194710100256
        0.104760224307        0.000000000000       -1.686499409362
        0.012094800428        0.000000000000       -0.194710100256
       -0.116855024735        0.000000000000        1.881209509618
       -0.094785185843        0.000000000000        1.525914639814
       -0.027773018954        0.000000000000        0.447108436158
        0.122558204796        0.000000000000       -1.973023075972
       -0.027773018954        0.000000000000        0.447108436158
        0.122558204796        0.000000000000       -1.973023075972
       -0.094785185843        0.000000000000        1.525914639814
        0.122558204796        0.000000000000       -1.973023075972
       -0.094785185843        0.000000000000        1.525914639814
       -0.027773018954        0.000000000000        0.447108436158
       -0.126392377746        0.000000000000        2.034748129135
        0.083364677557        0.000000000000       -1.342059740622
        0.043027700189        0.000000000000       -0.692688388513
        0.083364677557        0.000000000000       -1.342059740622
        0.043027700189        0.000000000000       -0.692688388513
       -0.126392377746        0.000000000000        2.034748129135
        0.043027700189        0.000000000000       -0.692688388513
       -0.126392377746        0.000000000000        2.034748129135
        0.083364677557        0.000000000000       -1.342059740622
       -0.057626210932        0.000000000000        0.927704874090
        0.128299072618        0.000000000000       -2.065443364823
       -0.070672861686        0.000000000000        1.137738490733
        0.128299072618        0.000000000000       -2.065443364823
       -0.070672861686        0.000000000000        1.137738490733
       -0.057626210932        0.000000000000        0.927704874090
       -0.070672861686        0.000000000000        1.137738490733
       -0.057626210932        0.000000000000        0.927704874090
        0.128299072618        0.000000000000       -2.065443364823
        0.056903287853        0.000000000000       -0.916066780019
        0.071345924549        0.000000000000       -1.148573902053
       -0.128249212402        0.000000000000        2.064640682072
        0.071345924549        0.000000000000       -1.148573902053
       -0.128249212402        0.000000000000        2.064640682072
        0.056903287853        0.000000000000       -0.916066780019
       -0.128249212402        0.000000000000        2.064640682072
        0.056903287853        0.000000000000       -0.916066780019
        0.071345924549        0.000000000000       -1.148573902053
# End: Data Text
# End: Segment