# OOMMF OVF 2.0
#
# Segment count: 000001
#
# Begin: Segment
# Begin: Header
#
# Title: SPIRIT NBMPO magnetic moments by  Michal
#
# Desc: -
#
# valuedim: 3   ## field dimensionality
# valueunits: none none none
# valuelabels: spin_x spin_y spin_z
#
## Fundamental mesh measurement unit. Treated as a label:
# meshunit: nm
#
# xmin: -0.1
# ymin: 0
# zmin: 0
# xmax: 0.2
# ymax: 0.173205
# zmax: 0.9
#
# meshtype: rectangular
# xbase: 0
# ybase: 0
# zbase: 0
# xstepsize: 0.1
# ystepsize: 0.0866025
# zstepsize: 0.1
# xnodes: 3
# ynodes: 3
# znodes: 10
#
# End: Header
#
# Begin: Data Text
        0.786406928012       -0.530000000000        3.394000000000
        1.378976795711       -0.187988750000       -1.697000000000
        0.588577060312       -0.872011250000       -1.697000000000
        1.378976795711       -0.187988750000       -1.697000000000
        0.588577060312       -0.872011250000       -1.697000000000
        0.786406928012       -0.530000000000        3.394000000000
        0.588577060312       -0.872011250000       -1.697000000000
        0.786406928012       -0.530000000000        3.394000000000
        1.378976795711       -0.187988750000       -1.697000000000
        1.034134037554       -0.331108835875        2.932156077952
        1.258724474438       -0.333974054244       -2.946372790333
        0.461102272043       -0.924917109881        0.014216712381
        1.258724474438       -0.333974054244       -2.946372790333
        0.461102272043       -0.924917109881        0.014216712381
        1.034134037554       -0.331108835875        2.932156077952
        0.461102272043       -0.924917109881        0.014216712381
        1.034134037554       -0.331108835875        2.932156077952
        1.258724474438       -0.333974054244       -2.946372790333
        1.250251343557       -0.186346531679        1.672316597215
        1.045739351261       -0.533308440168       -3.393880898697
        0.457970089216       -0.870345028152        1.721564301482
        1.045739351261       -0.533308440168       -3.393880898697
        0.457970089216       -0.870345028152        1.721564301482
        1.250251343557       -0.186346531679        1.672316597215
        0.457970089216       -0.870345028152        1.721564301482
        1.250251343557       -0.186346531679        1.672316597215
        1.045739351261       -0.533308440168       -3.393880898697
        1.375941837049       -0.135110606762       -0.042649139364
        0.797986001682       -0.731742423627       -2.917733576763
        0.580032945303       -0.723146969611        2.960382716127
        0.797986001682       -0.731742423627       -2.917733576763
        0.580032945303       -0.723146969611        2.960382716127
        1.375941837049       -0.135110606762       -0.042649139364
        0.580032945303       -0.723146969611        2.960382716127
        1.375941837049       -0.135110606762       -0.042649139364
        0.797986001682       -0.731742423627       -2.917733576763
        1.376998452337       -0.191345080281       -1.746007777654
        0.582891284081       -0.875271567857       -1.647515825493
        0.794071047617       -0.523383351861        3.393523603148
        0.582891284081       -0.875271567857       -1.647515825493
        0.794071047617       -0.523383351861        3.393523603148
        1.376998452337       -0.191345080281       -1.746007777654
        0.794071047617       -0.523383351861        3.393523603148
        1.376998452337       -0.191345080281       -1.746007777654
        0.582891284081       -0.875271567857       -1.647515825493
        1.253133628227       -0.339745562253       -2.974184872069
        0.458993906758       -0.924833961899        0.071078573084
        1.041833249049       -0.325420475848        2.903106298985
        0.458993906758       -0.924833961899        0.071078573084
        1.041833249049       -0.325420475848        2.903106298985
        1.253133628227       -0.339745562253       -2.974184872069
        1.041833249049       -0.325420475848        2.903106298985
        1.253133628227       -0.339745562253       -2.974184872069
        0.458993906758       -0.924833961899        0.071078573084
        1.038057568708       -0.539924391730       -3.392928138428
        0.460012933165       -0.866941043317        1.770328712989
        1.255890282162       -0.183134564953        1.622599425438
        0.460012933165       -0.866941043317        1.770328712989
        1.255890282162       -0.183134564953        1.622599425438
        1.038057568708       -0.539924391730       -3.392928138428
        1.255890282162       -0.183134564953        1.622599425438
        1.038057568708       -0.539924391730       -3.392928138428
        0.460012933165       -0.866941043317        1.770328712989
        0.790303904226       -0.737402266581       -2.888275271211
        0.585671032038       -0.717348553171        2.987778289476
        1.377985847771       -0.135249180248       -0.099503018265
        0.585671032038       -0.717348553171        2.987778289476
        1.377985847771       -0.135249180248       -0.099503018265
        0.790303904226       -0.737402266581       -2.888275271211
        1.377985847771       -0.135249180248       -0.099503018265
        0.790303904226       -0.737402266581       -2.888275271211
        0.585671032038       -0.717348553171        2.987778289476
        0.577299578863       -0.878434958026       -1.597569145769
        0.801769953984       -0.516768561207        3.392094546329
        1.374891251188       -0.194796480767       -1.794525400560
        0.801769953984       -0.516768561207        3.392094546329
        1.374891251188       -0.194796480767       -1.794525400560
        0.577299578863       -0.878434958026       -1.597569145769
        1.374891251188       -0.194796480767       -1.794525400560
        0.577299578863       -0.878434958026       -1.597569145769
        0.801769953984       -0.516768561207        3.392094546329
        0.457014394055       -0.924639972634        0.127920479982
        1.049497693310       -0.319789547195        2.873241534335
        1.247448696670       -0.345570480171       -3.001162014316
        1.049497693310       -0.319789547195        2.873241534335
        1.247448696670       -0.345570480171       -3.001162014316
        0.457014394055       -0.924639972634        0.127920479982
        1.247448696670       -0.345570480171       -3.001162014316
        0.457014394055       -0.924639972634        0.127920479982
        1.049497693310       -0.319789547195        2.873241534335
# End: Data Text
# End: Segment