# OOMMF OVF 2.0
#
# Segment count: 000001
#
# Begin: Segment
# Begin: Header
#
# Title: SPIRIT NBMPO magnetic moments by  Michal
#
# Desc: -
#
# valuedim: 3   ## field dimensionality
# valueunits: none none none
# valuelabels: spin_x spin_y spin_z
#
## Fundamental mesh measurement unit. Treated as a label:
# meshunit: nm
#
# xmin: -0.1
# ymin: 0
# zmin: 0
# xmax: 0.2
# ymax: 0.173205
# zmax: 0.9
#
# meshtype: rectangular
# xbase: 0
# ybase: 0
# zbase: 0
# xstepsize: 0.1
# ystepsize: 0.0866025
# zstepsize: 0.1
# xnodes: 3
# ynodes: 3
# znodes: 10
#
# End: Header
#
# Begin: Data Text
        1.764309521330       -0.633529318606        3.185873107114
        1.965265783865       -0.637368084871       -3.201319979804
        0.946961875240       -1.429102596523        0.015446872691
        1.965265783865       -0.637368084871       -3.201319979804
        0.946961875240       -1.429102596523        0.015446872691
        1.764309521330       -0.633529318606        3.185873107114
        0.946961875240       -1.429102596523        0.015446872691
        1.764309521330       -0.633529318606        3.185873107114
        1.965265783865       -0.637368084871       -3.201319979804
        2.170238219312       -0.370892761635        0.000000000000
        1.355846392929       -1.164553619182       -3.193624561028
        1.150452568195       -1.164553619182        3.193624561028
        1.355846392929       -1.164553619182       -3.193624561028
        1.150452568195       -1.164553619182        3.193624561028
        2.170238219312       -0.370892761635        0.000000000000
        1.150452568195       -1.164553619182        3.193624561028
        2.170238219312       -0.370892761635        0.000000000000
        1.355846392929       -1.164553619182       -3.193624561028
        1.969204821352       -0.633529318606       -3.185873107114
        0.947955320838       -1.429102596523       -0.015446872691
        1.759377038246       -0.637368084871        3.201319979804
        0.947955320838       -1.429102596523       -0.015446872691
        1.759377038246       -0.637368084871        3.201319979804
        1.969204821352       -0.633529318606       -3.185873107114
        1.759377038246       -0.637368084871        3.201319979804
        1.969204821352       -0.633529318606       -3.185873107114
        0.947955320838       -1.429102596523       -0.015446872691
        1.360785956337       -1.160705602953       -3.208959228420
        1.146527896485       -1.168383068127        3.178065754068
        2.169223327614       -0.370911328919        0.030893474351
        1.146527896485       -1.168383068127        3.178065754068
        2.169223327614       -0.370911328919        0.030893474351
        1.360785956337       -1.160705602953       -3.208959228420
        2.169223327614       -0.370911328919        0.030893474351
        1.360785956337       -1.160705602953       -3.208959228420
        1.146527896485       -1.168383068127        3.178065754068
        0.948991640828       -1.429065462281       -0.046339533957
        1.754430481184       -0.641225283547        3.216542172836
        1.973115058423       -0.629709254172       -3.170202638879
        1.754430481184       -0.641225283547        3.216542172836
        1.973115058423       -0.629709254172       -3.170202638879
        0.948991640828       -1.429065462281       -0.046339533957
        1.973115058423       -0.629709254172       -3.170202638879
        0.948991640828       -1.429065462281       -0.046339533957
        1.754430481184       -0.641225283547        3.216542172836
        1.142632162660       -1.172193681025        3.162283899512
        2.168165597515       -0.370967029468        0.061784780492
        1.365739420261       -1.156839289508       -3.224068680004
        2.168165597515       -0.370967029468        0.061784780492
        1.365739420261       -1.156839289508       -3.224068680004
        1.142632162660       -1.172193681025        3.162283899512
        1.365739420261       -1.156839289508       -3.224068680004
        1.142632162660       -1.172193681025        3.162283899512
        2.168165597515       -0.370967029468        0.061784780492
        1.749470197311       -0.645100643924        3.231538617864
        1.976996220647       -0.625908159672       -3.154309674909
        0.950070762478       -1.428991196404       -0.077228942955
        1.976996220647       -0.625908159672       -3.154309674909
        0.950070762478       -1.428991196404       -0.077228942955
        1.749470197311       -0.645100643924        3.231538617864
        0.950070762478       -1.428991196404       -0.077228942955
        1.749470197311       -0.645100643924        3.231538617864
        1.976996220647       -0.625908159672       -3.154309674909
        2.167065103249       -0.371059859372        0.092671750364
        1.370706437051       -1.152954950196       -3.238951855349
        1.138765640136       -1.175985190432        3.146280104984
        1.370706437051       -1.152954950196       -3.238951855349
        1.138765640136       -1.175985190432        3.146280104984
        2.167065103249       -0.371059859372        0.092671750364
        1.138765640136       -1.175985190432        3.146280104984
        2.167065103249       -0.371059859372        0.092671750364
        1.370706437051       -1.152954950196       -3.238951855349
        1.980848035630       -0.622126301882       -3.138195330625
        0.951192610051       -1.428879804102       -0.108112931761
        1.744496534755       -0.648993894015        3.246308262385
        0.951192610051       -1.428879804102       -0.108112931761
        1.744496534755       -0.648993894015        3.246308262385
        1.980848035630       -0.622126301882       -3.138195330625
        1.744496534755       -0.648993894015        3.246308262385
        1.980848035630       -0.622126301882       -3.138195330625
        0.951192610051       -1.428879804102       -0.108112931761
        1.375686658104       -1.149052857635       -3.253607709900
        1.134928600279       -1.179757330249        3.130055493685
        2.165921922054       -0.371189812116        0.123552216214
        1.134928600279       -1.179757330249        3.130055493685
        2.165921922054       -0.371189812116        0.123552216214
        1.375686658104       -1.149052857635       -3.253607709900
        2.165921922054       -0.371189812116        0.123552216214
        1.375686658104       -1.149052857635       -3.253607709900
        1.134928600279       -1.179757330249        3.130055493685
# End: Data Text
# End: Segment