# OOMMF OVF 2.0
#
# Segment count: 000001
#
# Begin: Segment
# Begin: Header
#
# Title: SPIRIT NBMPO magnetic moments by  Michal
#
# Desc: -
#
# valuedim: 3   ## field dimensionality
# valueunits: none none none
# valuelabels: spin_x spin_y spin_z
#
## Fundamental mesh measurement unit. Treated as a label:
# meshunit: nm
#
# xmin: -0.1
# ymin: 0
# zmin: 0
# xmax: 0.2
# ymax: 0.173205
# zmax: 0.9
#
# meshtype: rectangular
# xbase: 0
# ybase: 0
# zbase: 0
# xstepsize: 0.1
# ystepsize: 0.0866025
# zstepsize: 0.1
# xnodes: 3
# ynodes: 3
# znodes: 10
#
# End: Header
#
# Begin: Data Text
        2.251607574067       -1.330000000000        3.039000000000
        2.732189997444       -0.981625750000       -1.519500000000
        1.927085150689       -1.678374250000       -1.519500000000
        2.732189997444       -0.981625750000       -1.519500000000
        1.927085150689       -1.678374250000       -1.519500000000
        2.251607574067       -1.330000000000        3.039000000000
        1.927085150689       -1.678374250000       -1.519500000000
        2.251607574067       -1.330000000000        3.039000000000
        2.732189997444       -0.981625750000       -1.519500000000
        2.654985943991       -1.000159558976        1.739621229682
        2.395321697010       -1.295499608082       -3.027802559434
        1.860575081199       -1.694340832942        1.288181329752
        2.395321697010       -1.295499608082       -3.027802559434
        1.860575081199       -1.694340832942        1.288181329752
        2.654985943991       -1.000159558976        1.739621229682
        1.860575081199       -1.694340832942        1.288181329752
        2.654985943991       -1.000159558976        1.739621229682
        2.395321697010       -1.295499608082       -3.027802559434
        2.757905211149       -0.952377470475       -1.047369843527
        1.980042474091       -1.638875984641       -1.946922909955
        2.172935036960       -1.398746544884        2.994292753483
        1.980042474091       -1.638875984641       -1.946922909955
        2.172935036960       -1.398746544884        2.994292753483
        2.757905211149       -0.952377470475       -1.047369843527
        2.172935036960       -1.398746544884        2.994292753483
        2.757905211149       -0.952377470475       -1.047369843527
        1.980042474091       -1.638875984641       -1.946922909955
        2.472355430953       -1.227513906527       -2.938717521310
        1.841472437944       -1.718121464784        0.798840120005
        2.597054853303       -1.044364628688        2.139877401305
        1.841472437944       -1.718121464784        0.798840120005
        2.597054853303       -1.044364628688        2.139877401305
        2.472355430953       -1.227513906527       -2.938717521310
        2.597054853303       -1.044364628688        2.139877401305
        2.472355430953       -1.227513906527       -2.938717521310
        1.841472437944       -1.718121464784        0.798840120005
        2.042520428513       -1.590289864864       -2.317062790964
        2.098107780191       -1.465470405510        2.861486405765
        2.770254513495       -0.934239729626       -0.544423614801
        2.098107780191       -1.465470405510        2.861486405765
        2.770254513495       -0.934239729626       -0.544423614801
        2.042520428513       -1.590289864864       -2.317062790964
        2.770254513495       -0.934239729626       -0.544423614801
        2.042520428513       -1.590289864864       -2.317062790964
        2.098107780191       -1.465470405510        2.861486405765
        1.835967480506       -1.730482654702        0.285995164175
        2.530490445270       -1.096973759578        2.477173371219
        2.544424796424       -1.162543585720       -2.763168535394
        2.530490445270       -1.096973759578        2.477173371219
        2.544424796424       -1.162543585720       -2.763168535394
        1.835967480506       -1.730482654702        0.285995164175
        2.544424796424       -1.162543585720       -2.763168535394
        1.835967480506       -1.730482654702        0.285995164175
        2.530490445270       -1.096973759578        2.477173371219
        2.029327396795       -1.528208409726        2.644488430441
        2.768874559105       -0.927746182242       -0.025459169058
        2.112680766300       -1.534045408032       -2.619029261382
        2.768874559105       -0.927746182242       -0.025459169058
        2.112680766300       -1.534045408032       -2.619029261382
        2.029327396795       -1.528208409726        2.644488430441
        2.112680766300       -1.534045408032       -2.619029261382
        2.029327396795       -1.528208409726        2.644488430441
        2.768874559105       -0.927746182242       -0.025459169058
        2.457251200574       -1.156439067878        2.741585102520
        2.609409344007       -1.102500224567       -2.506320663739
        1.844222177619       -1.731060707555       -0.235264438781
        2.609409344007       -1.102500224567       -2.506320663739
        1.844222177619       -1.731060707555       -0.235264438781
        2.457251200574       -1.156439067878        2.741585102520
        1.844222177619       -1.731060707555       -0.235264438781
        2.457251200574       -1.156439067878        2.741585102520
        2.609409344007       -1.102500224567       -2.506320663739
        2.753805949464       -0.933087883685        0.494254345027
        2.188459206099       -1.471797457711       -2.843937760873
        1.968617566637       -1.585114658605        2.349683415846
        2.188459206099       -1.471797457711       -2.843937760873
        1.968617566637       -1.585114658605        2.349683415846
        2.753805949464       -0.933087883685        0.494254345027
        1.968617566637       -1.585114658605        2.349683415846
        2.753805949464       -0.933087883685        0.494254345027
        2.188459206099       -1.471797457711       -2.843937760873
        2.665397076211       -1.049150439289       -2.175730971903
        1.865993656772       -1.719838615676       -0.749602011292
        2.379491989217       -1.221010945035        2.925332983195
        1.865993656772       -1.719838615676       -0.749602011292
        2.379491989217       -1.221010945035        2.925332983195
        2.665397076211       -1.049150439289       -2.175730971903
        2.379491989217       -1.221010945035        2.925332983195
        2.665397076211       -1.049150439289       -2.175730971903
        1.865993656772       -1.719838615676       -0.749602011292
# End: Data Text
# End: Segment